 Entering Gaussian System, Link 0=g09
 Input=H2S-6311+Gs.com
 Output=H2S-6311+Gs.log
 Initial command:
 /usr/local/share/ajzapps/g09/l1.exe /home/a/Tmp/g09chk/Gau-19339.inp -scrdir=/home/a/Tmp/g09chk/
 Entering Link 1 = /usr/local/share/ajzapps/g09/l1.exe PID=     19341.
  
 Copyright (c) 1988,1990,1992,1993,1995,1998,2003,2009,2011,
            Gaussian, Inc.  All Rights Reserved.
  
 This is part of the Gaussian(R) 09 program.  It is based on
 the Gaussian(R) 03 system (copyright 2003, Gaussian, Inc.),
 the Gaussian(R) 98 system (copyright 1998, Gaussian, Inc.),
 the Gaussian(R) 94 system (copyright 1995, Gaussian, Inc.),
 the Gaussian 92(TM) system (copyright 1992, Gaussian, Inc.),
 the Gaussian 90(TM) system (copyright 1990, Gaussian, Inc.),
 the Gaussian 88(TM) system (copyright 1988, Gaussian, Inc.),
 the Gaussian 86(TM) system (copyright 1986, Carnegie Mellon
 University), and the Gaussian 82(TM) system (copyright 1983,
 Carnegie Mellon University). Gaussian is a federally registered
 trademark of Gaussian, Inc.
  
 This software contains proprietary and confidential information,
 including trade secrets, belonging to Gaussian, Inc.
  
 This software is provided under written license and may be
 used, copied, transmitted, or stored only in accord with that
 written license.
  
 The following legend is applicable only to US Government
 contracts under FAR:
  
                    RESTRICTED RIGHTS LEGEND
  
 Use, reproduction and disclosure by the US Government is
 subject to restrictions as set forth in subparagraphs (a)
 and (c) of the Commercial Computer Software - Restricted
 Rights clause in FAR 52.227-19.
  
 Gaussian, Inc.
 340 Quinnipiac St., Bldg. 40, Wallingford CT 06492
  
  
 ---------------------------------------------------------------
 Warning -- This program may not be used in any manner that
 competes with the business of Gaussian, Inc. or will provide
 assistance to any competitor of Gaussian, Inc.  The licensee
 of this program is prohibited from giving any competitor of
 Gaussian, Inc. access to this program.  By using this program,
 the user acknowledges that Gaussian, Inc. is engaged in the
 business of creating and licensing software in the field of
 computational chemistry and represents and warrants to the
 licensee that it is not a competitor of Gaussian, Inc. and that
 it will not use this program in any manner prohibited above.
 ---------------------------------------------------------------
  

 Cite this work as:
 Gaussian 09, Revision C.01,
 M. J. Frisch, G. W. Trucks, H. B. Schlegel, G. E. Scuseria, 
 M. A. Robb, J. R. Cheeseman, G. Scalmani, V. Barone, B. Mennucci, 
 G. A. Petersson, H. Nakatsuji, M. Caricato, X. Li, H. P. Hratchian, 
 A. F. Izmaylov, J. Bloino, G. Zheng, J. L. Sonnenberg, M. Hada, 
 M. Ehara, K. Toyota, R. Fukuda, J. Hasegawa, M. Ishida, T. Nakajima, 
 Y. Honda, O. Kitao, H. Nakai, T. Vreven, J. A. Montgomery, Jr., 
 J. E. Peralta, F. Ogliaro, M. Bearpark, J. J. Heyd, E. Brothers, 
 K. N. Kudin, V. N. Staroverov, T. Keith, R. Kobayashi, J. Normand, 
 K. Raghavachari, A. Rendell, J. C. Burant, S. S. Iyengar, J. Tomasi, 
 M. Cossi, N. Rega, J. M. Millam, M. Klene, J. E. Knox, J. B. Cross, 
 V. Bakken, C. Adamo, J. Jaramillo, R. Gomperts, R. E. Stratmann, 
 O. Yazyev, A. J. Austin, R. Cammi, C. Pomelli, J. W. Ochterski, 
 R. L. Martin, K. Morokuma, V. G. Zakrzewski, G. A. Voth, 
 P. Salvador, J. J. Dannenberg, S. Dapprich, A. D. Daniels, 
 O. Farkas, J. B. Foresman, J. V. Ortiz, J. Cioslowski, 
 and D. J. Fox, Gaussian, Inc., Wallingford CT, 2010.
 
 ******************************************
 Gaussian 09:  EM64L-G09RevC.01 23-Sep-2011
                15-Dec-2017 
 ******************************************
 ----------------------
 #p gfinput HF/6-311+G*
 ----------------------
 1/38=1/1;
 2/12=2,17=6,18=5,40=1/2;
 3/5=4,6=6,7=11,11=9,16=1,24=10,25=1,30=1/1,2,3;
 4//1;
 5/5=2,38=5/2;
 6/7=2,8=2,9=2,10=2,28=1/1;
 99/5=1,9=1/99;
 Leave Link    1 at Fri Dec 15 16:28:00 2017, MaxMem=          0 cpu:       0.0
 (Enter /usr/local/share/ajzapps/g09/l101.exe)
 ---
 H2S
 ---
 Charge =  0 Multiplicity = 1
 Symbolic Z-Matrix:
 S
 H                    1     0.94 
 H                    1     0.94     2     104.5 
 
 NAtoms=      3 NQM=        0 NQMF=       0 NMMI=      3 NMMIF=      0
                NMic=       0 NMicF=      0.
                    Isotopes and Nuclear Properties:
 (Nuclear quadrupole moments (NQMom) in fm**2, nuclear magnetic moments (NMagM)
  in nuclear magnetons)

  Atom         1           2           3
 IAtWgt=          32           1           1
 AtmWgt=  31.9720718   1.0078250   1.0078250
 NucSpn=           0           1           1
 AtZEff=   0.0000000   0.0000000   0.0000000
 NQMom=    0.0000000   0.0000000   0.0000000
 NMagM=    0.0000000   2.7928460   2.7928460
 Leave Link  101 at Fri Dec 15 16:28:00 2017, MaxMem=   33554432 cpu:       0.0
 (Enter /usr/local/share/ajzapps/g09/l202.exe)
                          Input orientation:                          
 ---------------------------------------------------------------------
 Center     Atomic      Atomic             Coordinates (Angstroms)
 Number     Number       Type             X           Y           Z
 ---------------------------------------------------------------------
      1         16           0        0.000000    0.000000    0.000000
      2          1           0        0.000000    0.000000    0.940000
      3          1           0        0.910059    0.000000   -0.235357
 ---------------------------------------------------------------------
                    Distance matrix (angstroms):
                    1          2          3
     1  S    0.000000
     2  H    0.940000   0.000000
     3  H    0.940000   1.486496   0.000000
 Stoichiometry    H2S
 Framework group  C2V[C2(S),SGV(H2)]
 Deg. of freedom     2
 Full point group                 C2V     NOp   4
 Largest Abelian subgroup         C2V     NOp   4
 Largest concise Abelian subgroup C2      NOp   2
                         Standard orientation:                         
 ---------------------------------------------------------------------
 Center     Atomic      Atomic             Coordinates (Angstroms)
 Number     Number       Type             X           Y           Z
 ---------------------------------------------------------------------
      1         16           0        0.000000    0.000000    0.063943
      2          1           0       -0.000000    0.743248   -0.511542
      3          1           0       -0.000000   -0.743248   -0.511542
 ---------------------------------------------------------------------
 Rotational constants (GHZ):    804.7972042    453.8729766    290.2076399
 Leave Link  202 at Fri Dec 15 16:28:00 2017, MaxMem=   33554432 cpu:       0.0
 (Enter /usr/local/share/ajzapps/g09/l301.exe)
 Standard basis: 6-311+G(d) (5D, 7F)
 Ernie: Thresh=  0.10000D-02 Tol=  0.10000D-05 Strict=F.
 AO basis set in the form of general basis input (Overlap normalization):
      1 0
 S   6 1.00       0.000000000000
      0.9341340000D+05  0.7429999567D-03
      0.1396170000D+05  0.5792999662D-02
      0.3169910000D+04  0.2995399825D-01
      0.9024560000D+03  0.1190279931D+00
      0.2971580000D+03  0.3684319785D+00
      0.1087020000D+03  0.5772989663D+00
 S   3 1.00       0.000000000000
      0.1087020000D+03  0.1431860600D+00
      0.4315530000D+02  0.6244652619D+00
      0.1810790000D+02  0.2833661188D+00
 S   1 1.00       0.000000000000
      0.5560090000D+01  0.1000000000D+01
 S   1 1.00       0.000000000000
      0.2131830000D+01  0.1000000000D+01
 S   1 1.00       0.000000000000
      0.4204030000D+00  0.1000000000D+01
 S   1 1.00       0.000000000000
      0.1360450000D+00  0.1000000000D+01
 SP   1 1.00       0.000000000000
      0.4050000000D-01  0.1000000000D+01  0.1000000000D+01
 P   4 1.00       0.000000000000
      0.4950400000D+03  0.8309002513D-02
      0.1172210000D+03  0.6402401937D-01
      0.3777490000D+02  0.2776140840D+00
      0.1405840000D+02  0.7450762254D+00
 P   2 1.00       0.000000000000
      0.5565740000D+01  0.6137116720D+00
      0.2262970000D+01  0.4438177628D+00
 P   1 1.00       0.000000000000
      0.8079940000D+00  0.1000000000D+01
 P   1 1.00       0.000000000000
      0.2774600000D+00  0.1000000000D+01
 P   1 1.00       0.000000000000
      0.7714100000D-01  0.1000000000D+01
 D   1 1.00       0.000000000000
      0.6500000000D+00  0.1000000000D+01
 ****
      2 0
 S   3 1.00       0.000000000000
      0.3386500000D+02  0.2549381454D-01
      0.5094790000D+01  0.1903731086D+00
      0.1158790000D+01  0.8521614860D+00
 S   1 1.00       0.000000000000
      0.3258400000D+00  0.1000000000D+01
 S   1 1.00       0.000000000000
      0.1027410000D+00  0.1000000000D+01
 ****
      3 0
 S   3 1.00       0.000000000000
      0.3386500000D+02  0.2549381454D-01
      0.5094790000D+01  0.1903731086D+00
      0.1158790000D+01  0.8521614860D+00
 S   1 1.00       0.000000000000
      0.3258400000D+00  0.1000000000D+01
 S   1 1.00       0.000000000000
      0.1027410000D+00  0.1000000000D+01
 ****

 There are    18 symmetry adapted basis functions of A1  symmetry.
 There are     1 symmetry adapted basis functions of A2  symmetry.
 There are     7 symmetry adapted basis functions of B1  symmetry.
 There are    10 symmetry adapted basis functions of B2  symmetry.
 Integral buffers will be    131072 words long.
 Raffenetti 1 integral format.
 Two-electron integral symmetry is turned on.
    36 basis functions,    60 primitive gaussians,    37 cartesian basis functions
     9 alpha electrons        9 beta electrons
       nuclear repulsion energy        18.3705328377 Hartrees.
 IExCor=    0 DFT=F Ex=HF Corr=None ExCW=0 ScaHFX=  1.000000
 ScaDFX=  1.000000  1.000000  1.000000  1.000000 ScalE2=  1.000000  1.000000
 IRadAn=      0 IRanWt=     -1 IRanGd=            0 ICorTp=0
 NAtoms=    3 NActive=    3 NUniq=    2 SFac= 2.25D+00 NAtFMM=   60 NAOKFM=F Big=F
 Leave Link  301 at Fri Dec 15 16:28:00 2017, MaxMem=   33554432 cpu:       0.0
 (Enter /usr/local/share/ajzapps/g09/l302.exe)
 NPDir=0 NMtPBC=     1 NCelOv=     1 NCel=       1 NClECP=     1 NCelD=      1
         NCelK=      1 NCelE2=     1 NClLst=     1 CellRange=     0.0.
 One-electron integrals computed using PRISM.
 One-electron integral symmetry used in STVInt
 NBasis=    36 RedAO= T  NBF=    18     1     7    10
 NBsUse=    36 1.00D-06 NBFU=    18     1     7    10
 Leave Link  302 at Fri Dec 15 16:28:00 2017, MaxMem=   33554432 cpu:       0.1
 (Enter /usr/local/share/ajzapps/g09/l303.exe)
 DipDrv:  MaxL=1.
 Leave Link  303 at Fri Dec 15 16:28:01 2017, MaxMem=   33554432 cpu:       0.0
 (Enter /usr/local/share/ajzapps/g09/l401.exe)
 Harris functional with IExCor=  205 diagonalized for initial guess.
 ExpMin= 4.05D-02 ExpMax= 9.34D+04 ExpMxC= 3.17D+03 IAcc=2 IRadAn=         4 AccDes= 0.00D+00
 HarFok:  IExCor=  205 AccDes= 0.00D+00 IRadAn=         4 IDoV= 1
 ScaDFX=  1.000000  1.000000  1.000000  1.000000
 FoFCou: FMM=F IPFlag=           0 FMFlag=      100000 FMFlg1=           0
         NFxFlg=           0 DoJE=T BraDBF=F KetDBF=T FulRan=T
         Omega=  0.000000  0.000000  1.000000  0.000000  0.000000 ICntrl=     500 IOpCl=  0
         NMat0=    1 NMatS0=    1 NMatT0=    0 NMatD0=    1 NMtDS0=    0 NMtDT0=    0
         I1Cent=           4 NGrid=           0.
 Petite list used in FoFCou.
 Harris En= -398.011890085847    
 Initial guess orbital symmetries:
       Occupied  (A1) (A1) (B2) (A1) (B1) (A1) (B2) (A1) (B1)
       Virtual   (A1) (B2) (A1) (B1) (B2) (A1) (B2) (A1) (B1) (A1)
                 (B2) (A1) (A2) (B1) (A1) (A1) (B2) (A1) (B2) (B1)
                 (A1) (B2) (A1) (B1) (A1) (B2) (A1)
 The electronic state of the initial guess is 1-A1.
 Leave Link  401 at Fri Dec 15 16:28:01 2017, MaxMem=   33554432 cpu:       0.1
 (Enter /usr/local/share/ajzapps/g09/l502.exe)
 Closed shell SCF:
 Requested convergence on RMS density matrix=1.00D-08 within 128 cycles.
 Requested convergence on MAX density matrix=1.00D-06.
 Requested convergence on             energy=1.00D-06.
 No special actions if energy rises.
 Using DIIS extrapolation, IDIIS=  1040.
 Integral symmetry usage will be decided dynamically.
 Keep R1 ints in memory in canonical form, NReq=1090321.
 IEnd=       22851 IEndB=       22851 NGot=    33554432 MDV=    33302144
 LenX=    33302144 LenY=    33300334
 Symmetry not used in FoFDir.
 MinBra= 0 MaxBra= 2 Meth= 1.
 IRaf=       0 NMat=   1 IRICut=       1 DoRegI=T DoRafI=F ISym2E= 0 JSym2E=0.

 Cycle   1  Pass 1  IDiag  1:
 E= -398.291182908293    
 DIIS: error= 1.60D-01 at cycle   1 NSaved=   1.
 NSaved= 1 IEnMin= 1 EnMin= -398.291182908293     IErMin= 1 ErrMin= 1.60D-01
 ErrMax= 1.60D-01 EMaxC= 1.00D-01 BMatC= 4.14D-01 BMatP= 4.14D-01
 IDIUse=3 WtCom= 0.00D+00 WtEn= 1.00D+00
 Coeff-Com:  0.100D+01
 Coeff-En:   0.100D+01
 Coeff:      0.100D+01
 Gap=     0.428 Goal=   None    Shift=    0.000
 GapD=    0.428 DampG=2.000 DampE=0.250 DampFc=0.5000 IDamp=-1.
 Damping current iteration by 5.00D-01
 RMSDP=7.38D-03 MaxDP=1.24D-01              OVMax= 7.21D-02

 Cycle   2  Pass 1  IDiag  1:
 E= -398.317638126419     Delta-E=       -0.026455218127 Rises=F Damp=T
 DIIS: error= 7.99D-02 at cycle   2 NSaved=   2.
 NSaved= 2 IEnMin= 2 EnMin= -398.317638126419     IErMin= 2 ErrMin= 7.99D-02
 ErrMax= 7.99D-02 EMaxC= 1.00D-01 BMatC= 1.09D-01 BMatP= 4.14D-01
 IDIUse=3 WtCom= 2.01D-01 WtEn= 7.99D-01
 Coeff-Com: -0.103D+01 0.203D+01
 Coeff-En:   0.000D+00 0.100D+01
 Coeff:     -0.207D+00 0.121D+01
 Gap=     0.444 Goal=   None    Shift=    0.000
 RMSDP=3.34D-03 MaxDP=5.37D-02 DE=-2.65D-02 OVMax= 8.07D-03

 Cycle   3  Pass 1  IDiag  1:
 E= -398.343011950459     Delta-E=       -0.025373824040 Rises=F Damp=F
 DIIS: error= 2.36D-03 at cycle   3 NSaved=   3.
 NSaved= 3 IEnMin= 3 EnMin= -398.343011950459     IErMin= 3 ErrMin= 2.36D-03
 ErrMax= 2.36D-03 EMaxC= 1.00D-01 BMatC= 2.70D-04 BMatP= 1.09D-01
 IDIUse=3 WtCom= 9.76D-01 WtEn= 2.36D-02
 Coeff-Com:  0.347D+00-0.705D+00 0.136D+01
 Coeff-En:   0.000D+00 0.000D+00 0.100D+01
 Coeff:      0.339D+00-0.688D+00 0.135D+01
 Gap=     0.457 Goal=   None    Shift=    0.000
 RMSDP=5.03D-04 MaxDP=6.36D-03 DE=-2.54D-02 OVMax= 5.14D-03

 Cycle   4  Pass 1  IDiag  1:
 E= -398.343157916211     Delta-E=       -0.000145965752 Rises=F Damp=F
 DIIS: error= 2.82D-04 at cycle   4 NSaved=   4.
 NSaved= 4 IEnMin= 4 EnMin= -398.343157916211     IErMin= 4 ErrMin= 2.82D-04
 ErrMax= 2.82D-04 EMaxC= 1.00D-01 BMatC= 2.73D-06 BMatP= 2.70D-04
 IDIUse=3 WtCom= 9.97D-01 WtEn= 2.82D-03
 Coeff-Com:  0.197D-01-0.412D-01 0.420D-01 0.979D+00
 Coeff-En:   0.000D+00 0.000D+00 0.000D+00 0.100D+01
 Coeff:      0.197D-01-0.411D-01 0.419D-01 0.980D+00
 Gap=     0.457 Goal=   None    Shift=    0.000
 RMSDP=1.46D-04 MaxDP=2.81D-03 DE=-1.46D-04 OVMax= 1.06D-03

 Cycle   5  Pass 1  IDiag  1:
 E= -398.343162323939     Delta-E=       -0.000004407728 Rises=F Damp=F
 DIIS: error= 1.02D-04 at cycle   5 NSaved=   5.
 NSaved= 5 IEnMin= 5 EnMin= -398.343162323939     IErMin= 5 ErrMin= 1.02D-04
 ErrMax= 1.02D-04 EMaxC= 1.00D-01 BMatC= 2.46D-07 BMatP= 2.73D-06
 IDIUse=3 WtCom= 9.99D-01 WtEn= 1.02D-03
 Coeff-Com: -0.104D-01 0.217D-01-0.370D-01-0.372D+00 0.140D+01
 Coeff-En:   0.000D+00 0.000D+00 0.000D+00 0.000D+00 0.100D+01
 Coeff:     -0.104D-01 0.217D-01-0.370D-01-0.371D+00 0.140D+01
 Gap=     0.457 Goal=   None    Shift=    0.000
 RMSDP=8.34D-05 MaxDP=1.58D-03 DE=-4.41D-06 OVMax= 5.95D-04

 Cycle   6  Pass 1  IDiag  1:
 E= -398.343163044809     Delta-E=       -0.000000720870 Rises=F Damp=F
 DIIS: error= 1.09D-05 at cycle   6 NSaved=   6.
 NSaved= 6 IEnMin= 6 EnMin= -398.343163044809     IErMin= 6 ErrMin= 1.09D-05
 ErrMax= 1.09D-05 EMaxC= 1.00D-01 BMatC= 3.19D-09 BMatP= 2.46D-07
 IDIUse=1 WtCom= 1.00D+00 WtEn= 0.00D+00
 Coeff-Com:  0.734D-03-0.153D-02 0.361D-02 0.133D-01-0.170D+00 0.115D+01
 Coeff:      0.734D-03-0.153D-02 0.361D-02 0.133D-01-0.170D+00 0.115D+01
 Gap=     0.457 Goal=   None    Shift=    0.000
 RMSDP=1.09D-05 MaxDP=2.02D-04 DE=-7.21D-07 OVMax= 7.28D-05

 Cycle   7  Pass 1  IDiag  1:
 E= -398.343163053899     Delta-E=       -0.000000009091 Rises=F Damp=F
 DIIS: error= 7.87D-07 at cycle   7 NSaved=   7.
 NSaved= 7 IEnMin= 7 EnMin= -398.343163053899     IErMin= 7 ErrMin= 7.87D-07
 ErrMax= 7.87D-07 EMaxC= 1.00D-01 BMatC= 3.03D-11 BMatP= 3.19D-09
 IDIUse=1 WtCom= 1.00D+00 WtEn= 0.00D+00
 Coeff-Com:  0.135D-04-0.259D-04-0.209D-03 0.252D-02 0.112D-01-0.183D+00
 Coeff-Com:  0.117D+01
 Coeff:      0.135D-04-0.259D-04-0.209D-03 0.252D-02 0.112D-01-0.183D+00
 Coeff:      0.117D+01
 Gap=     0.457 Goal=   None    Shift=    0.000
 RMSDP=7.62D-07 MaxDP=1.09D-05 DE=-9.09D-09 OVMax= 5.04D-06

 Cycle   8  Pass 1  IDiag  1:
 E= -398.343163053966     Delta-E=       -0.000000000067 Rises=F Damp=F
 DIIS: error= 1.47D-07 at cycle   8 NSaved=   8.
 NSaved= 8 IEnMin= 8 EnMin= -398.343163053966     IErMin= 8 ErrMin= 1.47D-07
 ErrMax= 1.47D-07 EMaxC= 1.00D-01 BMatC= 8.79D-13 BMatP= 3.03D-11
 IDIUse=1 WtCom= 1.00D+00 WtEn= 0.00D+00
 Coeff-Com: -0.113D-04 0.244D-04-0.679D-04-0.716D-03 0.491D-02-0.243D-01
 Coeff-Com: -0.743D-01 0.109D+01
 Coeff:     -0.113D-04 0.244D-04-0.679D-04-0.716D-03 0.491D-02-0.243D-01
 Coeff:     -0.743D-01 0.109D+01
 Gap=     0.457 Goal=   None    Shift=    0.000
 RMSDP=1.01D-07 MaxDP=1.16D-06 DE=-6.68D-11 OVMax= 7.66D-07

 Cycle   9  Pass 1  IDiag  1:
 E= -398.343163053968     Delta-E=       -0.000000000001 Rises=F Damp=F
 DIIS: error= 2.18D-08 at cycle   9 NSaved=   9.
 NSaved= 9 IEnMin= 9 EnMin= -398.343163053968     IErMin= 9 ErrMin= 2.18D-08
 ErrMax= 2.18D-08 EMaxC= 1.00D-01 BMatC= 1.85D-14 BMatP= 8.79D-13
 IDIUse=1 WtCom= 1.00D+00 WtEn= 0.00D+00
 Coeff-Com: -0.373D-06 0.334D-06 0.140D-04 0.796D-04-0.127D-02 0.941D-02
 Coeff-Com: -0.869D-02-0.228D+00 0.123D+01
 Coeff:     -0.373D-06 0.334D-06 0.140D-04 0.796D-04-0.127D-02 0.941D-02
 Coeff:     -0.869D-02-0.228D+00 0.123D+01
 Gap=     0.457 Goal=   None    Shift=    0.000
 RMSDP=1.34D-08 MaxDP=1.69D-07 DE=-1.48D-12 OVMax= 1.39D-07

 Cycle  10  Pass 1  IDiag  1:
 E= -398.343163053968     Delta-E=       -0.000000000000 Rises=F Damp=F
 DIIS: error= 2.16D-09 at cycle  10 NSaved=  10.
 NSaved=10 IEnMin=10 EnMin= -398.343163053968     IErMin=10 ErrMin= 2.16D-09
 ErrMax= 2.16D-09 EMaxC= 1.00D-01 BMatC= 2.26D-16 BMatP= 1.85D-14
 IDIUse=1 WtCom= 1.00D+00 WtEn= 0.00D+00
 Coeff-Com:  0.289D-06-0.525D-06-0.172D-05-0.117D-05 0.173D-03-0.155D-02
 Coeff-Com:  0.302D-02 0.264D-01-0.240D+00 0.121D+01
 Coeff:      0.289D-06-0.525D-06-0.172D-05-0.117D-05 0.173D-03-0.155D-02
 Coeff:      0.302D-02 0.264D-01-0.240D+00 0.121D+01
 Gap=     0.457 Goal=   None    Shift=    0.000
 RMSDP=1.22D-09 MaxDP=1.22D-08 DE=-3.41D-13 OVMax= 1.76D-08

 SCF Done:  E(RHF) =  -398.343163054     A.U. after   10 cycles
             Convg  =    0.1217D-08             -V/T =  1.9942
 KE= 4.006756473232D+02 PE=-9.871438418156D+02 EE= 1.697544986008D+02
 Leave Link  502 at Fri Dec 15 16:28:01 2017, MaxMem=   33554432 cpu:       0.1
 (Enter /usr/local/share/ajzapps/g09/l601.exe)
 Copying SCF densities to generalized density rwf, IOpCl= 0 IROHF=0.

 **********************************************************************

            Population analysis using the SCF density.

 **********************************************************************

 Orbital symmetries:
       Occupied  (A1) (A1) (B2) (A1) (B1) (A1) (B2) (A1) (B1)
       Virtual   (A1) (B2) (A1) (B1) (B2) (A1) (B2) (A1) (B1) (A1)
                 (B2) (A1) (A2) (A1) (B1) (A1) (B2) (A1) (B2) (B1)
                 (A1) (B2) (A1) (B1) (A1) (B2) (A1)
 The electronic state is 1-A1.
 Alpha  occ. eigenvalues --  -91.89613  -8.94104  -6.62769  -6.62132  -6.61267
 Alpha  occ. eigenvalues --   -1.13193  -0.75989  -0.49845  -0.39048
 Alpha virt. eigenvalues --    0.06635   0.08449   0.09905   0.10166   0.21025
 Alpha virt. eigenvalues --    0.27730   0.37257   0.38399   0.44662   0.52937
 Alpha virt. eigenvalues --    0.57438   0.95816   0.98023   0.99090   1.00878
 Alpha virt. eigenvalues --    1.36138   1.44985   1.90900   1.93419   1.96011
 Alpha virt. eigenvalues --    2.69410   3.11115   8.49585  18.40816  18.48533
 Alpha virt. eigenvalues --   18.54014 192.42781
          Condensed to atoms (all electrons):
              1          2          3
     1  S   15.878155   0.240107   0.240107
     2  H    0.240107   0.623744  -0.043036
     3  H    0.240107  -0.043036   0.623744
 Mulliken atomic charges:
              1
     1  S   -0.358370
     2  H    0.179185
     3  H    0.179185
 Sum of Mulliken atomic charges =  -0.00000
 Mulliken charges with hydrogens summed into heavy atoms:
              1
     1  S   -0.000000
 Sum of Mulliken charges with hydrogens summed into heavy atoms =  -0.00000
 Electronic spatial extent (au):  <R**2>=             37.0143
 Charge=             -0.0000 electrons
 Dipole moment (field-independent basis, Debye):
    X=             -0.0000    Y=              0.0000    Z=             -1.6095  Tot=              1.6095
 Quadrupole moment (field-independent basis, Debye-Ang):
   XX=            -16.0357   YY=            -11.7458   ZZ=            -13.8693
   XY=              0.0000   XZ=             -0.0000   YZ=              0.0000
 Traceless Quadrupole moment (field-independent basis, Debye-Ang):
   XX=             -2.1521   YY=              2.1378   ZZ=              0.0143
   XY=              0.0000   XZ=             -0.0000   YZ=              0.0000
 Octapole moment (field-independent basis, Debye-Ang**2):
  XXX=              0.0000  YYY=             -0.0000  ZZZ=             -3.2080  XYY=              0.0000
  XXY=             -0.0000  XXZ=             -1.2905  XZZ=              0.0000  YZZ=              0.0000
  YYZ=             -0.8275  XYZ=             -0.0000
 Hexadecapole moment (field-independent basis, Debye-Ang**3):
 XXXX=            -24.2461 YYYY=            -15.8253 ZZZZ=            -19.7507 XXXY=             -0.0000
 XXXZ=             -0.0000 YYYX=             -0.0000 YYYZ=              0.0000 ZZZX=             -0.0000
 ZZZY=              0.0000 XXYY=             -6.7423 XXZZ=             -7.3541 YYZZ=             -5.8774
 XXYZ=              0.0000 YYXZ=             -0.0000 ZZXY=             -0.0000
 N-N= 1.837053283767D+01 E-N=-9.871438418302D+02  KE= 4.006756473232D+02
 Symmetry A1   KE= 3.232099185907D+02
 Symmetry A2   KE= 4.110447943525D-34
 Symmetry B1   KE= 3.855679325303D+01
 Symmetry B2   KE= 3.890893547940D+01
 No NMR shielding tensors so no spin-rotation constants.
 Leave Link  601 at Fri Dec 15 16:28:01 2017, MaxMem=   33554432 cpu:       0.1
 (Enter /usr/local/share/ajzapps/g09/l9999.exe)
 1\1\GINC-A-OMEN\SP\RHF\6-311+G(d)\H2S1\A\15-Dec-2017\0\\#p gfinput HF/
 6-311+G*\\H2S\\0,1\S\H,1,0.94\H,1,0.94,2,104.5\\Version=EM64L-G09RevC.
 01\State=1-A1\HF=-398.3431631\RMSD=1.217e-09\Dipole=0.5006824,0.,0.387
 6698\Quadrupole=0.6023586,-1.6000116,0.997653,0.,-0.7642449,0.\PG=C02V
  [C2(S1),SGV(H2)]\\@


 MICHAEL FARADAY, ASKED BY A POLITICIAN WHAT GOOD
 HIS ELECTRICAL DISCOVERIES WERE, REPLIED 
 "AT PRESENT I DO NOT KNOW, BUT ONE DAY YOU WILL BE
 ABLE TO TAX THEM."
 Job cpu time:  0 days  0 hours  0 minutes  0.5 seconds.
 File lengths (MBytes):  RWF=      5 Int=      0 D2E=      0 Chk=      1 Scr=      1
 Normal termination of Gaussian 09 at Fri Dec 15 16:28:01 2017.
